 *******************************************************************************
 ** Site#: 30315        For non-commercial use only    Version 18.184M 64BITS **
 *******************************************************************************
 ** Cite this program as: MOPAC2016, Version: 18.184M, James J. P. Stewart,   **
 ** Stewart Computational Chemistry, web: HTTP://OpenMOPAC.net. Days left: 322**
 *******************************************************************************
 **                                                                           **
 **                                MOPAC2016                                  **
 **                                                                           **
 *******************************************************************************

                              PM6 CALCULATION RESULTS

 *******************************************************************************
 *  CALCULATION DONE:                                Wed Aug 15 11:48:20 2018  *
 *  PM6        - The PM6 Hamiltonian to be used
 *  GEO-OK     - OVERRIDE INTERATOMIC DISTANCE AND OTHER SAFETY CHECKS
 *  MMOK       - APPLY MM CORRECTION TO CONH BARRIER
 *  RHF        - RESTRICTED HARTREE-FOCK CALCULATION
 *  EF         - USE EF ROUTINE FOR MINIMUM SEARCH
 *  THREADS=1  - MULTI-THREADING NOT USED
 *  T=         - A TIME OF     10.0 SECONDS REQUESTED
 *  DUMP=N     - RESTART FILE WRITTEN EVERY  7200.000 SECONDS
 *******************************************************************************
RHF PM6 EF GEO-OK MMOK T=10 THREADS=1
 Vitamin C with two controllable dihedral angles psi(7,6,3,1) and phi(11,10,6,7)

  ATOM    CHEMICAL      BOND LENGTH      BOND ANGLE     TWIST ANGLE 
 NUMBER    SYMBOL       (ANGSTROMS)      (DEGREES)       (DEGREES) 
   (I)                     NA:I           NB:NA:I       NC:NB:NA:I       NA    NB    NC 
     1       O          0.00000000       0.0000000       0.0000000        0     0     0
     2       H          0.98468620  *    0.0000000       0.0000000        1     0     0
     3       C          1.43651250  *  110.7230618  *    0.0000000        1     2     0
     4       H          1.10751723  *  103.6603154  * -167.5282722  *     3     1     2
     5       H          1.10658657  *  110.2236860  *  -51.3620456  *     3     1     2
     6       C          1.53950336  *  112.8074046  * -123.2791585  *     3     4     5
     7       O          1.42824262  *  103.4315186  * -172.0000000        6     3     1
     8       H          0.99584949  *  109.9022382  * -165.7055126  *     7     6     3
     9       H          1.11472171  *  108.4417082  *   75.1535637  *     6     7     8
    10       C          1.54244170  *  109.4042184  * -120.8240216  *     6     7     9
    11       O          1.46313669  *  105.7792445  *   50.0000000       10     6     7
    12       H          1.11252563  *  112.8336666  * -114.5813834  *    10     6    11
    13       C          1.51686608  *  113.4849244  * -112.8332453  *    10    12    11
    14       O          1.34410484  *  125.3617342  *  179.6090511  *    13    10    11
    15       H          1.03381724  *  110.9736522  *  -13.3419919  *    14    13    10
    16       C          1.36084908  *  124.8906459  *  167.6242325  *    13    14    15
    17       O          1.35614887  *  131.9374989  *   -0.0333000  *    16    13    14
    18       H          1.00338885  *  109.4220239  *    0.3798200  *    17    16    13
    19       C          1.49109250  *  118.0837177  * -179.7749947  *    16    17    18
    20       O          1.18961787  *  136.9144035  *   -0.6060924  *    19    16    17
 


          CARTESIAN COORDINATES 

    NO.       ATOM           X           Y           Z

     1         O          0.0000      0.0000      0.0000
     2         H          0.9847      0.0000      0.0000
     3         C         -0.5083      1.3436      0.0000
     4         H         -1.5837      1.2164      0.2324
     5         H         -0.0373      1.9308      0.8111
     6         C         -0.2679      2.0094     -1.3671
     7         O         -0.6443      3.3690     -1.1447
     8         H         -0.7478      3.8391     -2.0165
     9         H          0.8068      1.9847     -1.6619
    10         C         -1.1520      1.4082     -2.4789
    11         O         -1.1004      2.3616     -3.5875
    12         H         -2.2255      1.3496     -2.1925
    13         C         -0.6162      0.1235     -3.0816
    14         O         -0.4694     -1.0410     -2.4266
    15         H         -0.5562     -0.9048     -1.4055
    16         C         -0.3218      0.3200     -4.3956
    17         O          0.1613     -0.5129     -5.3506
    18         H          0.3021     -1.4253     -4.9575
    19         C         -0.6071      1.7333     -4.7758
    20         O         -0.5202      2.4043     -5.7543

 General Reference for PM6:
 "Optimization of Parameters for Semiempirical Methods V: Modification of NDDO Approximations
 and Application to 70 Elements", J. J. P. Stewart, J. Mol. Mod., 13, 1173-1213 (2007)
 URL: http://www.springerlink.com/content/ar33482301010477/fulltext.pdf

           Empirical Formula: C6 H8 O6  =    20 atoms



      MOLECULAR POINT GROUP   :   C1  


      RHF CALCULATION, NO. OF DOUBLY OCCUPIED LEVELS = 34


          Geometry optimization using EF

          DIAGONAL MATRIX USED AS START HESSIAN

 CYCLE:     1 TIME:   0.004 TIME LEFT: 10.00S  GRAD.:     4.081 HEAT: -232.8684
 CYCLE:     2 TIME:   0.012 TIME LEFT:  9.98S  GRAD.:     9.900 HEAT: -232.8701
 CYCLE:     3 TIME:   0.004 TIME LEFT:  9.98S  GRAD.:    10.759 HEAT: -232.8691
 CYCLE:     4 TIME:   0.004 TIME LEFT:  9.98S  GRAD.:     1.304 HEAT: -232.8738
 CYCLE:     5 TIME:   0.004 TIME LEFT:  9.97S  GRAD.:     3.480 HEAT: -232.8731
 CYCLE:     6 TIME:   0.004 TIME LEFT:  9.97S  GRAD.:     0.423 HEAT: -232.8742

     GRADIENT =  0.42269  IS LESS THAN CUTOFF =  1.00000



 -------------------------------------------------------------------------------
 RHF PM6 EF GEO-OK MMOK T=10 THREADS=1
 Vitamin C with two controllable dihedral angles psi(7,6,3,1) and phi(11,10,6,7)



     GEOMETRY OPTIMISED USING EIGENVECTOR FOLLOWING (EF).     
     SCF FIELD WAS ACHIEVED                                   


                              PM6 CALCULATION
                                                       MOPAC2016 (Version: 18.184M)
                                                       Wed Aug 15 11:48:20 2018
                                                       No. of days remaining = 322




          FINAL HEAT OF FORMATION =       -232.87422 KCAL/MOL =    -974.34574 KJ/MOL


          TOTAL ENERGY            =      -2592.08105 EV
          ELECTRONIC ENERGY       =     -12569.65951 EV  POINT GROUP:     C1  
          CORE-CORE REPULSION     =       9977.57847 EV
          COSMO AREA              =        180.94 SQUARE ANGSTROMS
          COSMO VOLUME            =        183.06 CUBIC ANGSTROMS

          GRADIENT NORM           =          0.42269 = 0.09452 PER ATOM
          IONIZATION POTENTIAL    =          9.460152 EV
          HOMO LUMO ENERGIES (EV) =         -9.460 -0.815
          NO. OF FILLED LEVELS    =         34
          MOLECULAR WEIGHT        =        176.1256

          MOLECULAR DIMENSIONS (Angstroms)

            Atom       Atom       Distance
            H    18    H     5     6.67861
            O    20    H     2     5.24745
            H    12    H     9     2.99295


          SCF CALCULATIONS        =         10
 
          WALL-CLOCK TIME         =          0.043 SECONDS
          COMPUTATION TIME        =          0.042 SECONDS




  ATOM    CHEMICAL      BOND LENGTH      BOND ANGLE     TWIST ANGLE 
 NUMBER    SYMBOL       (ANGSTROMS)      (DEGREES)       (DEGREES) 
   (I)                     NA:I           NB:NA:I       NC:NB:NA:I       NA    NB    NC 
     1       O          0.00000000       0.0000000       0.0000000        0     0     0
     2       H          0.98463160  *    0.0000000       0.0000000        1     0     0
     3       C          1.43654293  *  110.7182130  *    0.0000000        1     2     0
     4       H          1.10744950  *  103.6901564  * -167.5035354  *     3     1     2
     5       H          1.10664191  *  110.2763598  *  -51.3065428  *     3     1     2
     6       C          1.53953034  *  112.8300819  * -123.3669627  *     3     4     5
     7       O          1.42800103  *  103.5507282  * -172.0000000        6     3     1
     8       H          0.99591109  *  109.8987104  * -165.6908036  *     7     6     3
     9       H          1.11477168  *  108.4268509  *   75.1918669  *     6     7     8
    10       C          1.54238052  *  109.4914228  * -120.8237480  *     6     7     9
    11       O          1.46304413  *  105.8867709  *   50.0000000       10     6     7
    12       H          1.11261926  *  112.8412396  * -114.5805787  *    10     6    11
    13       C          1.51676700  *  113.4812279  * -112.8269827  *    10    12    11
    14       O          1.34423929  *  125.3485777  *  179.5003103  *    13    10    11
    15       H          1.03358748  *  110.9617801  *  -13.3993937  *    14    13    10
    16       C          1.36074530  *  124.9135488  *  167.6306698  *    13    14    15
    17       O          1.35606774  *  131.9447485  *   -0.0155490  *    16    13    14
    18       H          1.00342283  *  109.4270194  *    0.3881586  *    17    16    13
    19       C          1.49119161  *  118.0774703  * -179.7802470  *    16    17    18
    20       O          1.18956468  *  136.8910193  *   -0.5932361  *    19    16    17

                             CARTESIAN COORDINATES

   1    O        0.000000000     0.000000000     0.000000000
   2    H        0.984631596     0.000000000     0.000000000
   3    C       -0.508208924     1.343644025     0.000000000
   4    H       -1.583495083     1.217159586     0.232821312
   5    H       -0.036898651     1.931929197     0.810212012
   6    C       -0.267262992     2.005340515    -1.369034878
   7    O       -0.641579703     3.366421298    -1.153319669
   8    H       -0.744271541     3.832359786    -2.027501924
   9    H        0.807728347     1.977854591    -1.662895477
  10    C       -1.150327964     1.398365136    -2.478410741
  11    O       -1.098484916     2.343785535    -3.593754048
  12    H       -2.224270978     1.341917199    -2.193136061
  13    C       -0.613880046     0.109338801    -3.071046271
  14    O       -0.465310783    -1.049556666    -2.406314935
  15    H       -0.550349214    -0.904405284    -1.386509743
  16    C       -0.322271720     0.295200619    -4.387119123
  17    O        0.159037544    -0.545183650    -5.336337423
  18    H        0.300687928    -1.454446270    -4.936294886
  19    C       -0.608344658     1.705501606    -4.778099703
  20    O       -0.523268928     2.368157486    -5.762332106


           Empirical Formula: C6 H8 O6  =    20 atoms



      MOLECULAR POINT GROUP   :   C1  


                  EIGENVALUES  
 -32.97429 -32.32523 -31.74085 -31.45149 -31.01210 -30.48365 -27.88419 -27.18726
 -25.44557 -23.31401 -22.34220 -21.40556 -19.60448 -19.25023 -18.49855 -18.44513
 -17.61379 -17.19644 -16.40993 -16.13140 -15.90998 -15.13271 -14.98203 -14.82177
 -14.51908 -14.13535 -13.60907 -13.49922 -12.92019 -12.36324 -11.77556 -11.41649
 -11.22261  -9.46015  -0.81461   0.22035   0.84534   0.87367   1.19508   1.62080
   1.84611   2.08087   2.33058   2.40339   2.71115   3.03453   3.42725   3.78630
   4.11717   4.28521   4.40243   4.50148   4.67819   4.76099   4.80998   5.07235


              NET ATOMIC CHARGES AND DIPOLE CONTRIBUTIONS

  ATOM NO.   TYPE          CHARGE      No. of ELECS.   s-Pop       p-Pop       
    1          O          -0.545534        6.5455     1.81572     4.72982
    2          H           0.324208        0.6758     0.67579
    3          C          -0.050911        4.0509     1.11174     2.93917
    4          H           0.170405        0.8296     0.82960
    5          H           0.158512        0.8415     0.84149
    6          C           0.087714        3.9123     1.11439     2.79789
    7          O          -0.539708        6.5397     1.82560     4.71410
    8          H           0.344634        0.6554     0.65537
    9          H           0.139695        0.8603     0.86030
   10          C           0.023818        3.9762     1.13043     2.84575
   11          O          -0.475312        6.4753     1.87156     4.60375
   12          H           0.179108        0.8209     0.82089
   13          C           0.097443        3.9026     1.08769     2.81486
   14          O          -0.443163        6.4432     1.81273     4.63043
   15          H           0.367571        0.6324     0.63243
   16          C          -0.053948        4.0539     1.08380     2.97014
   17          O          -0.383206        6.3832     1.81356     4.56965
   18          H           0.335429        0.6646     0.66457
   19          C           0.633205        3.3668     1.08743     2.27936
   20          O          -0.369961        6.3700     1.84611     4.52385
 DIPOLE           X         Y         Z       TOTAL
 POINT-CHG.     0.743    -1.858     4.733     5.139
 HYBRID         0.353    -0.320    -0.168     0.505
 SUM            1.096    -2.178     4.565     5.175


          ATOMIC ORBITAL ELECTRON POPULATIONS

     Atom    s        px        py        pz   
    1  O   1.81572   1.39254   1.38519   1.95209
    2  H   0.67579
    3  C   1.11174   1.10442   0.80576   1.02898
    4  H   0.82960
    5  H   0.84149
    6  C   1.11439   1.04214   0.80204   0.95372
    7  O   1.82560   1.92959   1.30767   1.47684
    8  H   0.65537
    9  H   0.86030
   10  C   1.13043   1.09551   0.87489   0.87536
   11  O   1.87156   1.81214   1.47630   1.31530
   12  H   0.82089
   13  C   1.08769   1.01876   0.85529   0.94082
   14  O   1.81273   1.86460   1.37544   1.39039
   15  H   0.63243
   16  C   1.08380   1.11068   0.94780   0.91167
   17  O   1.81356   1.81208   1.34138   1.41619
   18  H   0.66457
   19  C   1.08743   0.69569   0.82394   0.75973
   20  O   1.84611   1.51570   1.61398   1.39417

 **********************
 *                    *
 * JOB ENDED NORMALLY *
 *                    *
 **********************



 TOTAL JOB TIME:             0.05 SECONDS

 == MOPAC DONE ==
