 *******************************************************************************
 ** Site#: 30315        For non-commercial use only    Version 18.184M 64BITS **
 *******************************************************************************
 ** Cite this program as: MOPAC2016, Version: 18.184M, James J. P. Stewart,   **
 ** Stewart Computational Chemistry, web: HTTP://OpenMOPAC.net. Days left: 322**
 *******************************************************************************
 **                                                                           **
 **                                MOPAC2016                                  **
 **                                                                           **
 *******************************************************************************

                              PM6 CALCULATION RESULTS

 *******************************************************************************
 *  CALCULATION DONE:                                Wed Aug 15 11:48:20 2018  *
 *  PM6        - The PM6 Hamiltonian to be used
 *  GEO-OK     - OVERRIDE INTERATOMIC DISTANCE AND OTHER SAFETY CHECKS
 *  MMOK       - APPLY MM CORRECTION TO CONH BARRIER
 *  RHF        - RESTRICTED HARTREE-FOCK CALCULATION
 *  EF         - USE EF ROUTINE FOR MINIMUM SEARCH
 *  THREADS=1  - MULTI-THREADING NOT USED
 *  T=         - A TIME OF     10.0 SECONDS REQUESTED
 *  DUMP=N     - RESTART FILE WRITTEN EVERY  7200.000 SECONDS
 *******************************************************************************
RHF PM6 EF GEO-OK MMOK T=10 THREADS=1
 Vitamin C with two controllable dihedral angles psi(7,6,3,1) and phi(11,10,6,7)

  ATOM    CHEMICAL      BOND LENGTH      BOND ANGLE     TWIST ANGLE 
 NUMBER    SYMBOL       (ANGSTROMS)      (DEGREES)       (DEGREES) 
   (I)                     NA:I           NB:NA:I       NC:NB:NA:I       NA    NB    NC 
     1       O          0.00000000       0.0000000       0.0000000        0     0     0
     2       H          0.98468620  *    0.0000000       0.0000000        1     0     0
     3       C          1.43651250  *  110.7230618  *    0.0000000        1     2     0
     4       H          1.10751723  *  103.6603154  * -167.5282722  *     3     1     2
     5       H          1.10658657  *  110.2236860  *  -51.3620456  *     3     1     2
     6       C          1.53950336  *  112.8074046  * -123.2791585  *     3     4     5
     7       O          1.42824262  *  103.4315186  *  180.0000000        6     3     1
     8       H          0.99584949  *  109.9022382  * -165.7055126  *     7     6     3
     9       H          1.11472171  *  108.4417082  *   75.1535637  *     6     7     8
    10       C          1.54244170  *  109.4042184  * -120.8240216  *     6     7     9
    11       O          1.46313669  *  105.7792445  *  180.0000000       10     6     7
    12       H          1.11252563  *  112.8336666  * -114.5813834  *    10     6    11
    13       C          1.51686608  *  113.4849244  * -112.8332453  *    10    12    11
    14       O          1.34410484  *  125.3617342  *  179.6090511  *    13    10    11
    15       H          1.03381724  *  110.9736522  *  -13.3419919  *    14    13    10
    16       C          1.36084908  *  124.8906459  *  167.6242325  *    13    14    15
    17       O          1.35614887  *  131.9374989  *   -0.0333000  *    16    13    14
    18       H          1.00338885  *  109.4220239  *    0.3798200  *    17    16    13
    19       C          1.49109250  *  118.0837177  * -179.7749947  *    16    17    18
    20       O          1.18961787  *  136.9144035  *   -0.6060924  *    19    16    17
 


          CARTESIAN COORDINATES 

    NO.       ATOM           X           Y           Z

     1         O          0.0000      0.0000      0.0000
     2         H          0.9847      0.0000      0.0000
     3         C         -0.5083      1.3436      0.0000
     4         H         -1.5837      1.2164      0.2324
     5         H         -0.0373      1.9308      0.8111
     6         C         -0.2679      2.0094     -1.3671
     7         O         -0.8216      3.3155     -1.2020
     8         H         -0.9282      3.7533     -2.0900
     9         H          0.8178      2.1131     -1.5975
    10         C         -1.0013      1.2831     -2.5133
    11         O         -0.3760     -0.0359     -2.6131
    12         H         -0.8354      1.7617     -3.5038
    13         C         -2.4584      0.9719     -2.2289
    14         O         -3.4282      1.8851     -2.0492
    15         H         -3.0274      2.8275     -1.9079
    16         C         -2.6436     -0.3760     -2.2007
    17         O         -3.7499     -1.1349     -2.0024
    18         H         -4.5436     -0.5374     -1.8618
    19         C         -1.3468     -1.0734     -2.4361
    20         O         -0.9640     -2.1980     -2.4986

 General Reference for PM6:
 "Optimization of Parameters for Semiempirical Methods V: Modification of NDDO Approximations
 and Application to 70 Elements", J. J. P. Stewart, J. Mol. Mod., 13, 1173-1213 (2007)
 URL: http://www.springerlink.com/content/ar33482301010477/fulltext.pdf

           Empirical Formula: C6 H8 O6  =    20 atoms



      MOLECULAR POINT GROUP   :   C1  


      RHF CALCULATION, NO. OF DOUBLY OCCUPIED LEVELS = 34


          Geometry optimization using EF

          DIAGONAL MATRIX USED AS START HESSIAN

 CYCLE:     1 TIME:   0.008 TIME LEFT:  9.99S  GRAD.:    33.102 HEAT: -222.7229
 CYCLE:     2 TIME:   0.008 TIME LEFT:  9.98S  GRAD.:    71.387 HEAT: -222.9894
 CYCLE:     3 TIME:   0.004 TIME LEFT:  9.98S  GRAD.:    41.903 HEAT: -223.4245
 CYCLE:     4 TIME:   0.004 TIME LEFT:  9.98S  GRAD.:    25.910 HEAT: -223.6857
 CYCLE:     5 TIME:   0.004 TIME LEFT:  9.97S  GRAD.:    29.641 HEAT: -223.8943
 CYCLE:     6 TIME:   0.004 TIME LEFT:  9.97S  GRAD.:    24.513 HEAT: -224.0854
 CYCLE:     7 TIME:   0.004 TIME LEFT:  9.96S  GRAD.:    15.800 HEAT: -224.3851
 CYCLE:     8 TIME:   0.000 TIME LEFT:  9.96S  GRAD.:    12.162 HEAT: -224.7085
 CYCLE:     9 TIME:   0.004 TIME LEFT:  9.96S  GRAD.:    14.402 HEAT: -225.0071
 CYCLE:    10 TIME:   0.004 TIME LEFT:  9.96S  GRAD.:    10.482 HEAT: -225.3219
 CYCLE:    11 TIME:   0.004 TIME LEFT:  9.95S  GRAD.:    13.833 HEAT: -225.6980
 CYCLE:    12 TIME:   0.004 TIME LEFT:  9.95S  GRAD.:    15.136 HEAT: -225.9788
 CYCLE:    13 TIME:   0.004 TIME LEFT:  9.95S  GRAD.:     9.715 HEAT: -226.1770
 CYCLE:    14 TIME:   0.004 TIME LEFT:  9.94S  GRAD.:     7.980 HEAT: -226.2931
 CYCLE:    15 TIME:   0.000 TIME LEFT:  9.94S  GRAD.:     7.779 HEAT: -226.4095
 CYCLE:    16 TIME:   0.004 TIME LEFT:  9.94S  GRAD.:     7.228 HEAT: -226.4989
 CYCLE:    17 TIME:   0.004 TIME LEFT:  9.93S  GRAD.:     3.360 HEAT: -226.5559
 CYCLE:    18 TIME:   0.004 TIME LEFT:  9.93S  GRAD.:     2.615 HEAT: -226.5815
 CYCLE:    19 TIME:   0.000 TIME LEFT:  9.93S  GRAD.:     2.928 HEAT: -226.6092
 CYCLE:    20 TIME:   0.004 TIME LEFT:  9.93S  GRAD.:     2.490 HEAT: -226.6284
 CYCLE:    21 TIME:   0.004 TIME LEFT:  9.92S  GRAD.:     2.027 HEAT: -226.6485
 CYCLE:    22 TIME:   0.004 TIME LEFT:  9.92S  GRAD.:     2.254 HEAT: -226.6667
 CYCLE:    23 TIME:   0.004 TIME LEFT:  9.91S  GRAD.:     2.651 HEAT: -226.6878
 CYCLE:    24 TIME:   0.000 TIME LEFT:  9.91S  GRAD.:     2.670 HEAT: -226.7106
 CYCLE:    25 TIME:   0.004 TIME LEFT:  9.91S  GRAD.:     2.209 HEAT: -226.7326
 CYCLE:    26 TIME:   0.004 TIME LEFT:  9.91S  GRAD.:     1.760 HEAT: -226.7498
 CYCLE:    27 TIME:   0.004 TIME LEFT:  9.90S  GRAD.:     1.503 HEAT: -226.7606
 CYCLE:    28 TIME:   0.004 TIME LEFT:  9.90S  GRAD.:     1.206 HEAT: -226.7680
 CYCLE:    29 TIME:   0.004 TIME LEFT:  9.89S  GRAD.:     0.844 HEAT: -226.7723

     GRADIENT =  0.84405  IS LESS THAN CUTOFF =  1.00000



 -------------------------------------------------------------------------------
 RHF PM6 EF GEO-OK MMOK T=10 THREADS=1
 Vitamin C with two controllable dihedral angles psi(7,6,3,1) and phi(11,10,6,7)



     GEOMETRY OPTIMISED USING EIGENVECTOR FOLLOWING (EF).     
     SCF FIELD WAS ACHIEVED                                   


                              PM6 CALCULATION
                                                       MOPAC2016 (Version: 18.184M)
                                                       Wed Aug 15 11:48:20 2018
                                                       No. of days remaining = 322




          FINAL HEAT OF FORMATION =       -226.77227 KCAL/MOL =    -948.81518 KJ/MOL


          TOTAL ENERGY            =      -2591.81644 EV
          ELECTRONIC ENERGY       =     -12747.22450 EV  POINT GROUP:     C1  
          CORE-CORE REPULSION     =      10155.40806 EV
          COSMO AREA              =        178.42 SQUARE ANGSTROMS
          COSMO VOLUME            =        185.45 CUBIC ANGSTROMS

          GRADIENT NORM           =          0.84405 = 0.18874 PER ATOM
          IONIZATION POTENTIAL    =          9.390975 EV
          HOMO LUMO ENERGIES (EV) =         -9.391 -0.632
          NO. OF FILLED LEVELS    =         34
          MOLECULAR WEIGHT        =        176.1256

          MOLECULAR DIMENSIONS (Angstroms)

            Atom       Atom       Distance
            O    20    H     8     6.27248
            H     2    H    18     5.63446
            H    12    H     5     3.87469


          SCF CALCULATIONS        =         32
 
          WALL-CLOCK TIME         =          0.113 SECONDS
          COMPUTATION TIME        =          0.115 SECONDS




  ATOM    CHEMICAL      BOND LENGTH      BOND ANGLE     TWIST ANGLE 
 NUMBER    SYMBOL       (ANGSTROMS)      (DEGREES)       (DEGREES) 
   (I)                     NA:I           NB:NA:I       NC:NB:NA:I       NA    NB    NC 
     1       O          0.00000000       0.0000000       0.0000000        0     0     0
     2       H          0.98022674  *    0.0000000       0.0000000        1     0     0
     3       C          1.42086651  *  111.8065177  *    0.0000000        1     2     0
     4       H          1.10873022  *  103.4683656  *  169.0533690  *     3     1     2
     5       H          1.10750274  *  109.5887538  *  -74.7722853  *     3     1     2
     6       C          1.54440679  *  112.3002551  * -121.8114153  *     3     4     5
     7       O          1.44384208  *  103.2102914  *  180.0000000        6     3     1
     8       H          0.97854834  *  110.9141450  *  141.0736681  *     7     6     3
     9       H          1.11075183  *  110.9891137  *   22.0269390  *     6     7     8
    10       C          1.54048077  *  105.7480707  * -119.3477546  *     6     7     9
    11       O          1.45741373  *  108.7458111  *  180.0000000       10     6     7
    12       H          1.11292622  *  111.8363627  * -116.3525655  *    10     6    11
    13       C          1.51850520  *  112.4728437  * -112.7745811  *    10    12    11
    14       O          1.35291336  *  123.7407439  *  179.2589736  *    13    10    11
    15       H          1.01407274  *  109.5704841  *  -19.2841030  *    14    13    10
    16       C          1.35747574  *  126.2954789  *  160.5557945  *    13    14    15
    17       O          1.35373887  *  132.3673874  *    1.5433769  *    16    13    14
    18       H          1.00294065  *  109.6156456  *   -7.5807715  *    17    16    13
    19       C          1.49765566  *  118.1519884  *  172.9308472  *    16    17    18
    20       O          1.18918285  *  136.3676964  *   -0.1128533  *    19    16    17

                             CARTESIAN COORDINATES

   1    O        0.000000000     0.000000000     0.000000000
   2    H        0.980226737     0.000000000     0.000000000
   3    C       -0.527814190     1.319194385     0.000000000
   4    H       -1.606609289     1.165699767    -0.204751658
   5    H       -0.411299729     1.765738233     1.006769736
   6    C        0.145347403     2.226191320    -1.053281705
   7    O       -0.530468353     3.490341282    -0.880429497
   8    H        0.096285340     4.236539932    -0.969447635
   9    H        1.233874640     2.326785190    -0.856408754
  10    C       -0.091396804     1.822790005    -2.521035277
  11    O        0.567607702     0.546584233    -2.768152000
  12    H        0.374303086     2.544323564    -3.228931950
  13    C       -1.549613769     1.550374997    -2.845459989
  14    O       -2.529546467     2.476725197    -2.735998685
  15    H       -2.220410384     3.228140818    -2.129242586
  16    C       -1.702219495     0.262907624    -3.247802694
  17    O       -2.781637089    -0.441885674    -3.661001195
  18    H       -3.611478819     0.106184257    -3.531108950
  19    C       -0.377256206    -0.433973631    -3.205361170
  20    O        0.030310911    -1.523778007    -3.451066913


           Empirical Formula: C6 H8 O6  =    20 atoms



      MOLECULAR POINT GROUP   :   C1  


                  EIGENVALUES  
 -32.77336 -32.20427 -31.58535 -31.37563 -31.00696 -30.35751 -27.63213 -27.23033
 -25.29714 -23.18096 -22.07493 -21.41524 -19.63263 -19.18300 -18.40835 -17.96000
 -17.79462 -16.65269 -16.16701 -15.92469 -15.53740 -15.08312 -14.78375 -14.71864
 -14.36806 -14.26425 -13.58552 -13.15703 -12.53865 -12.41280 -11.62616 -11.17979
 -10.86292  -9.39097  -0.63199   0.28869   1.07421   1.09681   1.38281   1.72912
   2.18109   2.19137   2.39334   2.43760   2.82018   3.21573   3.60776   3.94081
   4.25139   4.29372   4.49789   4.67809   4.73895   4.85491   4.94840   5.46695


              NET ATOMIC CHARGES AND DIPOLE CONTRIBUTIONS

  ATOM NO.   TYPE          CHARGE      No. of ELECS.   s-Pop       p-Pop       
    1          O          -0.519011        6.5190     1.81590     4.70311
    2          H           0.315670        0.6843     0.68433
    3          C          -0.026850        4.0269     1.10424     2.92261
    4          H           0.169026        0.8310     0.83097
    5          H           0.136623        0.8634     0.86338
    6          C           0.065156        3.9348     1.12518     2.80967
    7          O          -0.566134        6.5661     1.81932     4.74682
    8          H           0.323962        0.6760     0.67604
    9          H           0.136741        0.8633     0.86326
   10          C           0.053010        3.9470     1.12286     2.82413
   11          O          -0.455906        6.4559     1.87110     4.58481
   12          H           0.164266        0.8357     0.83573
   13          C           0.077005        3.9230     1.08751     2.83549
   14          O          -0.425902        6.4259     1.81108     4.61482
   15          H           0.354011        0.6460     0.64599
   16          C          -0.028433        4.0284     1.08624     2.94220
   17          O          -0.379854        6.3799     1.81257     4.56728
   18          H           0.333872        0.6661     0.66613
   19          C           0.643837        3.3562     1.08659     2.26958
   20          O          -0.371089        6.3711     1.84559     4.52550
 DIPOLE           X         Y         Z       TOTAL
 POINT-CHG.     0.579     5.846     1.983     6.201
 HYBRID         0.147     0.650     0.013     0.666
 SUM            0.726     6.496     1.996     6.834


          ATOMIC ORBITAL ELECTRON POPULATIONS

     Atom    s        px        py        pz   
    1  O   1.81590   1.37973   1.35094   1.97244
    2  H   0.68433
    3  C   1.10424   1.06412   0.81397   1.04453
    4  H   0.83097
    5  H   0.86338
    6  C   1.12518   1.03592   0.80488   0.96887
    7  O   1.81932   1.51342   1.28295   1.95044
    8  H   0.67604
    9  H   0.86326
   10  C   1.12286   0.94023   0.86938   1.01452
   11  O   1.87110   1.47516   1.29721   1.81243
   12  H   0.83573
   13  C   1.08751   0.88143   0.89944   1.05461
   14  O   1.81108   1.46999   1.43168   1.71315
   15  H   0.64599
   16  C   1.08624   0.90826   0.93049   1.10345
   17  O   1.81257   1.26544   1.49281   1.80903
   18  H   0.66613
   19  C   1.08659   0.80360   0.77619   0.68979
   20  O   1.84559   1.71922   1.31325   1.49303

 **********************
 *                    *
 * JOB ENDED NORMALLY *
 *                    *
 **********************



 TOTAL JOB TIME:             0.11 SECONDS

 == MOPAC DONE ==
